# vtk DataFile Version 2.0
created with d2vtk
ASCII
DATASET STRUCTURED_POINTS
DIMENSIONS 64 64 1
ORIGIN  0.25 0.25 0
SPACING 0.5 0.5 0
POINT_DATA 4096
SCALARS vx double
LOOKUP_TABLE default
+2.06305e+00
+2.04525e+00
+2.02782e+00
+2.00936e+00
+1.99289e+00
+1.97872e+00
+1.96554e+00
+1.95439e+00
+1.94380e+00
+1.93451e+00
+1.92875e+00
+1.92317e+00
+1.91958e+00
+1.91845e+00
+1.91533e+00
+1.92033e+00
+1.92424e+00
+1.93172e+00
+1.93738e+00
+1.94688e+00
+1.95894e+00
+1.97204e+00
+1.98520e+00
+2.00059e+00
+2.01882e+00
+2.03626e+00
+2.05412e+00
+2.07344e+00
+2.09220e+00
+2.11432e+00
+2.13484e+00
+2.15525e+00
+2.17259e+00
+2.19569e+00
+2.21313e+00
+2.23008e+00
+2.24923e+00
+2.25982e+00
+2.27573e+00
+2.28930e+00
+2.30089e+00
+2.31098e+00
+2.31789e+00
+2.32279e+00
+2.32594e+00
+2.32577e+00
+2.32751e+00
+2.32446e+00
+2.32175e+00
+2.31513e+00
+2.30718e+00
+2.29510e+00
+2.28513e+00
+2.27019e+00
+2.25480e+00
+2.23732e+00
+2.22090e+00
+2.20033e+00
+2.18403e+00
+2.16238e+00
+2.14392e+00
+2.12389e+00
+2.10527e+00
+2.08471e+00
+2.06071e+00
+2.04442e+00
+2.02359e+00
+2.00551e+00
+1.99253e+00
+1.97414e+00
+1.96186e+00
+1.95252e+00
+1.93925e+00
+1.93167e+00
+1.92426e+00
+1.92070e+00
+1.91558e+00
+1.91421e+00
+1.91483e+00
+1.91678e+00
+1.91947e+00
+1.92869e+00
+1.93516e+00
+1.94500e+00
+1.95406e+00
+1.96436e+00
+1.98135e+00
+1.99931e+00
+2.01333e+00
+2.03135e+00
+2.05110e+00
+2.07204e+00
+2.08985e+00
+2.11056e+00
+2.13160e+00
+2.15316e+00
+2.17317e+00
+2.19131e+00
+2.21133e+00
+2.22709e+00
+2.24424e+00
+2.25887e+00
+2.27425e+00
+2.28669e+00
+2.29727e+00
+2.30767e+00
+2.31639e+00
+2.32140e+00
+2.32355e+00
+2.32496e+00
+2.32502e+00
+2.32293e+00
+2.31781e+00
+2.31203e+00
+2.30165e+00
+2.29419e+00
+2.27954e+00
+2.26575e+00
+2.25126e+00
+2.23417e+00
+2.21721e+00
+2.19939e+00
+2.17940e+00
+2.15731e+00
+2.13903e+00
+2.11825e+00
+2.09940e+00
+2.07792e+00
+2.05190e+00
+2.03413e+00
+2.01777e+00
+1.99758e+00
+1.98175e+00
+1.96826e+00
+1.95520e+00
+1.94275e+00
+1.93316e+00
+1.92337e+00
+1.91623e+00
+1.91280e+00
+1.90703e+00
+1.90778e+00
+1.90847e+00
+1.91015e+00
+1.91344e+00
+1.91848e+00
+1.92912e+00
+1.93706e+00
+1.94797e+00
+1.96061e+00
+1.97717e+00
+1.99146e+00
+2.01025e+00
+2.02608e+00
+2.04822e+00
+2.06550e+00
+2.08846e+00
+2.10535e+00
+2.12640e+00
+2.15020e+00
+2.16692e+00
+2.18834e+00
+2.20518e+00
+2.22493e+00
+2.24082e+00
+2.25714e+00
+2.27103e+00
+2.28376e+00
+2.29442e+00
+2.30663e+00
+2.31164e+00
+2.31660e+00
+2.31780e+00
+2.31926e+00
+2.31908e+00
+2.31793e+00
+2.31070e+00
+2.30543e+00
+2.29633e+00
+2.28440e+00
+2.27520e+00
+2.25999e+00
+2.24266e+00
+2.22887e+00
+2.20902e+00
+2.19258e+00
+2.17009e+00
+2.15329e+00
+2.13306e+00
+2.11324e+00
+2.09184e+00
+2.07450e+00
+2.04222e+00
+2.02229e+00
+2.00530e+00
+1.98509e+00
+1.96982e+00
+1.95715e+00
+1.94264e+00
+1.93157e+00
+1.92104e+00
+1.91370e+00
+1.90671e+00
+1.90229e+00
+1.89658e+00
+1.89933e+00
+1.89879e+00
+1.89688e+00
+1.90366e+00
+1.90759e+00
+1.91385e+00
+1.92896e+00
+1.93894e+00
+1.95301e+00
+1.97080e+00
+1.98054e+00
+2.00013e+00
+2.01675e+00
+2.03730e+00
+2.05801e+00
+2.07812e+00
+2.09956e+00
+2.12000e+00
+2.14063e+00
+2.16322e+00
+2.18262e+00
+2.20236e+00
+2.21976e+00
+2.23459e+00
+2.25053e+00
+2.26404e+00
+2.27722e+00
+2.28749e+00
+2.29614e+00
+2.30397e+00
+2.30870e+00
+2.31021e+00
+2.31228e+00
+2.31085e+00
+2.30565e+00
+2.30304e+00
+2.29509e+00
+2.28617e+00
+2.27675e+00
+2.26445e+00
+2.25001e+00
+2.23293e+00
+2.21595e+00
+2.19953e+00
+2.18102e+00
+2.16259e+00
+2.14013e+00
+2.12114e+00
+2.09942e+00
+2.08080e+00
+2.06210e+00
+2.02456e+00
+2.00936e+00
+1.98985e+00
+1.97420e+00
+1.95628e+00
+1.94416e+00
+1.92952e+00
+1.91860e+00
+1.90796e+00
+1.89803e+00
+1.89121e+00
+1.88702e+00
+1.88184e+00
+1.88321e+00
+1.88455e+00
+1.88338e+00
+1.89149e+00
+1.89502e+00
+1.90278e+00
+1.91417e+00
+1.92616e+00
+1.93897e+00
+1.95781e+00
+1.97127e+00
+1.98946e+00
+2.00738e+00
+2.02664e+00
+2.04615e+00
+2.06914e+00
+2.08946e+00
+2.11130e+00
+2.13028e+00
+2.15161e+00
+2.17266e+00
+2.19040e+00
+2.20974e+00
+2.22733e+00
+2.24213e+00
+2.25582e+00
+2.26815e+00
+2.27805e+00
+2.28784e+00
+2.29618e+00
+2.30026e+00
+2.30067e+00
+2.30240e+00
+2.30037e+00
+2.29607e+00
+2.29225e+00
+2.28197e+00
+2.27123e+00
+2.26378e+00
+2.25069e+00
+2.23317e+00
+2.22070e+00
+2.20159e+00
+2.18368e+00
+2.16465e+00
+2.14548e+00
+2.12537e+00
+2.10618e+00
+2.08374e+00
+2.06544e+00
+2.04914e+00
+2.00589e+00
+1.99048e+00
+1.96835e+00
+1.95117e+00
+1.93716e+00
+1.92089e+00
+1.91038e+00
+1.89793e+00
+1.89033e+00
+1.88038e+00
+1.87459e+00
+1.86769e+00
+1.86734e+00
+1.86315e+00
+1.86706e+00
+1.86895e+00
+1.87184e+00
+1.87812e+00
+1.88694e+00
+1.89754e+00
+1.90992e+00
+1.92336e+00
+1.93837e+00
+1.95487e+00
+1.97305e+00
+1.99474e+00
+2.01370e+00
+2.03334e+00
+2.05494e+00
+2.07849e+00
+2.09732e+00
+2.11928e+00
+2.13966e+00
+2.16081e+00
+2.18043e+00
+2.19891e+00
+2.21658e+00
+2.23194e+00
+2.24568e+00
+2.25496e+00
+2.26549e+00
+2.27750e+00
+2.28155e+00
+2.28514e+00
+2.28579e+00
+2.28828e+00
+2.28248e+00
+2.28279e+00
+2.27827e+00
+2.26619e+00
+2.25636e+00
+2.24641e+00
+2.23216e+00
+2.21692e+00
+2.20235e+00
+2.18667e+00
+2.16560e+00
+2.14593e+00
+2.12841e+00
+2.10844e+00
+2.08795e+00
+2.06644e+00
+2.04639e+00
+2.02617e+00
+1.98463e+00
+1.96835e+00
+1.94887e+00
+1.93318e+00
+1.91620e+00
+1.90301e+00
+1.88998e+00
+1.87823e+00
+1.86870e+00
+1.85990e+00
+1.84932e+00
+1.84753e+00
+1.84294e+00
+1.84339e+00
+1.84367e+00
+1.84675e+00
+1.85240e+00
+1.85810e+00
+1.86558e+00
+1.87713e+00
+1.89333e+00
+1.90571e+00
+1.92131e+00
+1.93585e+00
+1.95628e+00
+1.97517e+00
+1.99362e+00
+2.01527e+00
+2.03918e+00
+2.06093e+00
+2.08508e+00
+2.10392e+00
+2.12747e+00
+2.14759e+00
+2.16868e+00
+2.18545e+00
+2.20285e+00
+2.21812e+00
+2.23129e+00
+2.24161e+00
+2.25376e+00
+2.26210e+00
+2.26453e+00
+2.27188e+00
+2.27170e+00
+2.27301e+00
+2.26504e+00
+2.26212e+00
+2.25555e+00
+2.24721e+00
+2.23587e+00
+2.22530e+00
+2.21001e+00
+2.19695e+00
+2.18313e+00
+2.16326e+00
+2.14417e+00
+2.12537e+00
+2.10505e+00
+2.08654e+00
+2.06437e+00
+2.04411e+00
+2.02483e+00
+2.00457e+00
+1.96151e+00
+1.93801e+00
+1.92376e+00
+1.90792e+00
+1.89158e+00
+1.87520e+00
+1.86473e+00
+1.84987e+00
+1.84391e+00
+1.83658e+00
+1.82748e+00
+1.82409e+00
+1.82077e+00
+1.81856e+00
+1.82117e+00
+1.82326e+00
+1.82883e+00
+1.83426e+00
+1.84168e+00
+1.85365e+00
+1.86833e+00
+1.88116e+00
+1.89670e+00
+1.91371e+00
+1.93509e+00
+1.95512e+00
+1.97643e+00
+1.99764e+00
+2.01900e+00
+2.04349e+00
+2.06563e+00
+2.08698e+00
+2.10962e+00
+2.12881e+00
+2.15050e+00
+2.16700e+00
+2.18592e+00
+2.20276e+00
+2.21346e+00
+2.22305e+00
+2.23584e+00
+2.24193e+00
+2.24677e+00
+2.24694e+00
+2.25239e+00
+2.25163e+00
+2.24386e+00
+2.24287e+00
+2.23392e+00
+2.22588e+00
+2.21130e+00
+2.20222e+00
+2.18569e+00
+2.17196e+00
+2.15348e+00
+2.13957e+00
+2.11894e+00
+2.09554e+00
+2.07895e+00
+2.05980e+00
+2.03878e+00
+2.02009e+00
+1.99960e+00
+1.97722e+00
+1.92809e+00
+1.91165e+00
+1.89334e+00
+1.87817e+00
+1.86459e+00
+1.84841e+00
+1.83482e+00
+1.82211e+00
+1.81567e+00
+1.80628e+00
+1.79928e+00
+1.79494e+00
+1.79174e+00
+1.79073e+00
+1.79092e+00
+1.79696e+00
+1.79857e+00
+1.80346e+00
+1.81560e+00
+1.82783e+00
+1.84100e+00
+1.85494e+00
+1.87232e+00
+1.88932e+00
+1.91158e+00
+1.93209e+00
+1.95387e+00
+1.97695e+00
+1.99865e+00
+2.02372e+00
+2.04761e+00
+2.07022e+00
+2.09108e+00
+2.11273e+00
+2.13060e+00
+2.14948e+00
+2.16480e+00
+2.18384e+00
+2.19553e+00
+2.20701e+00
+2.21240e+00
+2.22165e+00
+2.22621e+00
+2.22792e+00
+2.22699e+00
+2.22566e+00
+2.22450e+00
+2.21069e+00
+2.20971e+00
+2.19659e+00
+2.18581e+00
+2.17399e+00
+2.15908e+00
+2.14280e+00
+2.12784e+00
+2.10997e+00
+2.08891e+00
+2.07096e+00
+2.04817e+00
+2.02827e+00
+2.00848e+00
+1.98811e+00
+1.96838e+00
+1.94848e+00
+1.89617e+00
+1.87743e+00
+1.86248e+00
+1.84598e+00
+1.83153e+00
+1.81794e+00
+1.80632e+00
+1.79518e+00
+1.78131e+00
+1.77542e+00
+1.76939e+00
+1.76308e+00
+1.76199e+00
+1.76108e+00
+1.76047e+00
+1.76334e+00
+1.76862e+00
+1.77715e+00
+1.78661e+00
+1.79540e+00
+1.81011e+00
+1.82699e+00
+1.84244e+00
+1.86148e+00
+1.88513e+00
+1.90501e+00
+1.92618e+00
+1.95454e+00
+1.97630e+00
+1.99918e+00
+2.02333e+00
+2.04542e+00
+2.06960e+00
+2.08954e+00
+2.11013e+00
+2.12784e+00
+2.14480e+00
+2.15845e+00
+2.17006e+00
+2.18168e+00
+2.18906e+00
+2.19621e+00
+2.19798e+00
+2.20135e+00
+2.20332e+00
+2.19785e+00
+2.19595e+00
+2.18866e+00
+2.17983e+00
+2.16734e+00
+2.15593e+00
+2.14142e+00
+2.12814e+00
+2.10983e+00
+2.09184e+00
+2.07563e+00
+2.05404e+00
+2.03254e+00
+2.01386e+00
+1.99728e+00
+1.97393e+00
+1.95455e+00
+1.93485e+00
+1.91446e+00
+1.86252e+00
+1.84425e+00
+1.82532e+00
+1.81220e+00
+1.79627e+00
+1.78217e+00
+1.76802e+00
+1.75925e+00
+1.74730e+00
+1.73868e+00
+1.73271e+00
+1.72999e+00
+1.72456e+00
+1.72720e+00
+1.72639e+00
+1.72998e+00
+1.73459e+00
+1.74120e+00
+1.75238e+00
+1.76213e+00
+1.77616e+00
+1.79287e+00
+1.81320e+00
+1.83137e+00
+1.85137e+00
+1.87394e+00
+1.89878e+00
+1.92067e+00
+1.94666e+00
+1.97044e+00
+1.99820e+00
+2.02148e+00
+2.04327e+00
+2.06446e+00
+2.08382e+00
+2.10407e+00
+2.12379e+00
+2.13478e+00
+2.14805e+00
+2.15613e+00
+2.16615e+00
+2.16997e+00
+2.17295e+00
+2.17172e+00
+2.17347e+00
+2.16771e+00
+2.16182e+00
+2.15327e+00
+2.14256e+00
+2.13316e+00
+2.12165e+00
+2.10552e+00
+2.09090e+00
+2.07592e+00
+2.05427e+00
+2.04099e+00
+2.01902e+00
+1.99797e+00
+1.98004e+00
+1.95658e+00
+1.93976e+00
+1.91701e+00
+1.89927e+00
+1.88077e+00
+1.82271e+00
+1.80470e+00
+1.78967e+00
+1.77444e+00
+1.75731e+00
+1.74321e+00
+1.73320e+00
+1.72113e+00
+1.71243e+00
+1.70534e+00
+1.69553e+00
+1.69195e+00
+1.68878e+00
+1.68741e+00
+1.69089e+00
+1.69262e+00
+1.69771e+00
+1.70435e+00
+1.71431e+00
+1.72814e+00
+1.74132e+00
+1.75709e+00
+1.77473e+00
+1.79569e+00
+1.81673e+00
+1.84167e+00
+1.86660e+00
+1.89084e+00
+1.91478e+00
+1.94186e+00
+1.96766e+00
+1.99171e+00
+2.01440e+00
+2.03781e+00
+2.05908e+00
+2.07736e+00
+2.09602e+00
+2.10388e+00
+2.11927e+00
+2.12655e+00
+2.13437e+00
+2.13867e+00
+2.13978e+00
+2.13912e+00
+2.13804e+00
+2.13121e+00
+2.12647e+00
+2.11753e+00
+2.10686e+00
+2.09364e+00
+2.08058e+00
+2.06568e+00
+2.05046e+00
+2.03398e+00
+2.01367e+00
+1.99814e+00
+1.97938e+00
+1.95997e+00
+1.93796e+00
+1.91907e+00
+1.89766e+00
+1.87734e+00
+1.86146e+00
+1.84250e+00
+1.78047e+00
+1.76446e+00
+1.74782e+00
+1.73340e+00
+1.71961e+00
+1.70481e+00
+1.69494e+00
+1.68016e+00
+1.67426e+00
+1.66369e+00
+1.65719e+00
+1.65394e+00
+1.65358e+00
+1.64966e+00
+1.65022e+00
+1.65060e+00
+1.65793e+00
+1.66317e+00
+1.67499e+00
+1.68700e+00
+1.70054e+00
+1.72126e+00
+1.73321e+00
+1.75855e+00
+1.77708e+00
+1.80358e+00
+1.82831e+00
+1.85519e+00
+1.88256e+00
+1.90819e+00
+1.93508e+00
+1.96108e+00
+1.98656e+00
+2.00771e+00
+2.02826e+00
+2.04599e+00
+2.06495e+00
+2.07556e+00
+2.08409e+00
+2.09415e+00
+2.10214e+00
+2.10525e+00
+2.10425e+00
+2.10371e+00
+2.09845e+00
+2.09386e+00
+2.08535e+00
+2.07655e+00
+2.06456e+00
+2.05036e+00
+2.03666e+00
+2.02598e+00
+2.00412e+00
+1.98909e+00
+1.97270e+00
+1.95597e+00
+1.93639e+00
+1.91650e+00
+1.89646e+00
+1.87452e+00
+1.85627e+00
+1.83655e+00
+1.81838e+00
+1.80174e+00
+1.73643e+00
+1.72124e+00
+1.70712e+00
+1.69147e+00
+1.67667e+00
+1.66491e+00
+1.65206e+00
+1.64316e+00
+1.62760e+00
+1.62238e+00
+1.61756e+00
+1.61361e+00
+1.60917e+00
+1.60955e+00
+1.60749e+00
+1.60838e+00
+1.61650e+00
+1.62449e+00
+1.63296e+00
+1.64134e+00
+1.65682e+00
+1.67523e+00
+1.69148e+00
+1.71393e+00
+1.73650e+00
+1.76322e+00
+1.78672e+00
+1.81500e+00
+1.84593e+00
+1.87193e+00
+1.89647e+00
+1.92659e+00
+1.95020e+00
+1.97383e+00
+1.99293e+00
+2.01016e+00
+2.02641e+00
+2.03813e+00
+2.05020e+00
+2.05778e+00
+2.06182e+00
+2.06439e+00
+2.06271e+00
+2.06139e+00
+2.05601e+00
+2.04865e+00
+2.03612e+00
+2.03121e+00
+2.01929e+00
+2.00602e+00
+1.99093e+00
+1.97482e+00
+1.95904e+00
+1.94150e+00
+1.92572e+00
+1.90394e+00
+1.88509e+00
+1.86667e+00
+1.84748e+00
+1.82858e+00
+1.80935e+00
+1.79324e+00
+1.77669e+00
+1.75533e+00
+1.69170e+00
+1.67544e+00
+1.66276e+00
+1.64614e+00
+1.63368e+00
+1.62320e+00
+1.60900e+00
+1.59789e+00
+1.58938e+00
+1.58085e+00
+1.57471e+00
+1.56774e+00
+1.56460e+00
+1.56020e+00
+1.56290e+00
+1.56520e+00
+1.56958e+00
+1.57572e+00
+1.58465e+00
+1.59530e+00
+1.61124e+00
+1.62722e+00
+1.64540e+00
+1.66915e+00
+1.69394e+00
+1.71953e+00
+1.74432e+00
+1.77089e+00
+1.80097e+00
+1.82835e+00
+1.85630e+00
+1.88546e+00
+1.91117e+00
+1.93478e+00
+1.95707e+00
+1.96988e+00
+1.98774e+00
+2.00062e+00
+2.00809e+00
+2.01454e+00
+2.02076e+00
+2.02010e+00
+2.01842e+00
+2.01360e+00
+2.00602e+00
+2.00238e+00
+1.99270e+00
+1.98132e+00
+1.96411e+00
+1.95632e+00
+1.94055e+00
+1.92360e+00
+1.90732e+00
+1.89007e+00
+1.87364e+00
+1.85508e+00
+1.83863e+00
+1.81710e+00
+1.80066e+00
+1.78020e+00
+1.75995e+00
+1.74308e+00
+1.72909e+00
+1.70957e+00
+1.64568e+00
+1.63262e+00
+1.61707e+00
+1.60115e+00
+1.58934e+00
+1.57544e+00
+1.56287e+00
+1.55240e+00
+1.54828e+00
+1.53416e+00
+1.53161e+00
+1.52449e+00
+1.51977e+00
+1.51832e+00
+1.51605e+00
+1.51835e+00
+1.52157e+00
+1.52668e+00
+1.53663e+00
+1.54463e+00
+1.56139e+00
+1.57855e+00
+1.59389e+00
+1.61796e+00
+1.64150e+00
+1.66736e+00
+1.69631e+00
+1.72532e+00
+1.75412e+00
+1.78559e+00
+1.81105e+00
+1.84075e+00
+1.86639e+00
+1.88815e+00
+1.91095e+00
+1.93038e+00
+1.94355e+00
+1.95349e+00
+1.96296e+00
+1.97108e+00
+1.97141e+00
+1.96750e+00
+1.96864e+00
+1.96749e+00
+1.95568e+00
+1.94859e+00
+1.93843e+00
+1.92591e+00
+1.91335e+00
+1.90015e+00
+1.88769e+00
+1.87122e+00
+1.85297e+00
+1.83719e+00
+1.81918e+00
+1.80175e+00
+1.78341e+00
+1.76812e+00
+1.74563e+00
+1.72977e+00
+1.71330e+00
+1.69398e+00
+1.68171e+00
+1.66303e+00
+1.59824e+00
+1.58522e+00
+1.57101e+00
+1.55738e+00
+1.54321e+00
+1.53170e+00
+1.51762e+00
+1.50949e+00
+1.50015e+00
+1.49154e+00
+1.48304e+00
+1.47677e+00
+1.47518e+00
+1.46934e+00
+1.46734e+00
+1.46732e+00
+1.47206e+00
+1.47419e+00
+1.48311e+00
+1.49394e+00
+1.50406e+00
+1.52115e+00
+1.54154e+00
+1.55973e+00
+1.58500e+00
+1.61353e+00
+1.63805e+00
+1.67249e+00
+1.69950e+00
+1.73318e+00
+1.76299e+00
+1.78954e+00
+1.81652e+00
+1.84219e+00
+1.86187e+00
+1.88072e+00
+1.89517e+00
+1.90395e+00
+1.91407e+00
+1.91356e+00
+1.91525e+00
+1.91583e+00
+1.91270e+00
+1.90539e+00
+1.89669e+00
+1.88586e+00
+1.87666e+00
+1.86950e+00
+1.85225e+00
+1.84095e+00
+1.82416e+00
+1.81334e+00
+1.79216e+00
+1.77803e+00
+1.76248e+00
+1.74352e+00
+1.72494e+00
+1.71175e+00
+1.69633e+00
+1.67682e+00
+1.66012e+00
+1.64357e+00
+1.62673e+00
+1.61290e+00
+1.54986e+00
+1.53533e+00
+1.52069e+00
+1.50877e+00
+1.49677e+00
+1.48664e+00
+1.47583e+00
+1.46544e+00
+1.45491e+00
+1.44523e+00
+1.43605e+00
+1.43040e+00
+1.42749e+00
+1.42168e+00
+1.41981e+00
+1.42061e+00
+1.41780e+00
+1.42117e+00
+1.42950e+00
+1.43847e+00
+1.44728e+00
+1.46482e+00
+1.47994e+00
+1.50050e+00
+1.52494e+00
+1.55066e+00
+1.57915e+00
+1.61235e+00
+1.64560e+00
+1.67516e+00
+1.70686e+00
+1.73625e+00
+1.76214e+00
+1.78884e+00
+1.80752e+00
+1.82674e+00
+1.83869e+00
+1.85005e+00
+1.85249e+00
+1.85931e+00
+1.85685e+00
+1.85388e+00
+1.84868e+00
+1.84321e+00
+1.83559e+00
+1.82462e+00
+1.81657e+00
+1.80377e+00
+1.78859e+00
+1.77813e+00
+1.76257e+00
+1.74926e+00
+1.73486e+00
+1.71641e+00
+1.70301e+00
+1.68359e+00
+1.66842e+00
+1.65413e+00
+1.63895e+00
+1.62431e+00
+1.60724e+00
+1.59345e+00
+1.57889e+00
+1.56289e+00
+1.49962e+00
+1.48890e+00
+1.47324e+00
+1.46242e+00
+1.44827e+00
+1.43902e+00
+1.43015e+00
+1.41765e+00
+1.41007e+00
+1.39938e+00
+1.39187e+00
+1.38650e+00
+1.37854e+00
+1.37179e+00
+1.37000e+00
+1.36664e+00
+1.36472e+00
+1.36720e+00
+1.37008e+00
+1.37598e+00
+1.38896e+00
+1.39955e+00
+1.41669e+00
+1.43389e+00
+1.46079e+00
+1.48679e+00
+1.51435e+00
+1.54431e+00
+1.57959e+00
+1.61142e+00
+1.64299e+00
+1.67507e+00
+1.70365e+00
+1.72575e+00
+1.74899e+00
+1.76340e+00
+1.77859e+00
+1.78377e+00
+1.79112e+00
+1.79466e+00
+1.79067e+00
+1.79061e+00
+1.78275e+00
+1.77517e+00
+1.76910e+00
+1.75602e+00
+1.74643e+00
+1.73352e+00
+1.72393e+00
+1.70981e+00
+1.69179e+00
+1.68403e+00
+1.66789e+00
+1.65341e+00
+1.63799e+00
+1.62404e+00
+1.61165e+00
+1.59696e+00
+1.58268e+00
+1.57013e+00
+1.55507e+00
+1.54093e+00
+1.52538e+00
+1.51451e+00
+1.45361e+00
+1.44157e+00
+1.42947e+00
+1.41585e+00
+1.40774e+00
+1.39770e+00
+1.38377e+00
+1.37464e+00
+1.36331e+00
+1.35089e+00
+1.34527e+00
+1.33650e+00
+1.32977e+00
+1.32233e+00
+1.31644e+00
+1.30993e+00
+1.31014e+00
+1.30950e+00
+1.30975e+00
+1.31610e+00
+1.32316e+00
+1.33391e+00
+1.34623e+00
+1.36745e+00
+1.38660e+00
+1.41125e+00
+1.44280e+00
+1.47213e+00
+1.50574e+00
+1.54057e+00
+1.57275e+00
+1.60262e+00
+1.63342e+00
+1.66058e+00
+1.68019e+00
+1.69475e+00
+1.70842e+00
+1.71387e+00
+1.71686e+00
+1.72079e+00
+1.71649e+00
+1.71272e+00
+1.70943e+00
+1.69685e+00
+1.69171e+00
+1.68103e+00
+1.66887e+00
+1.66001e+00
+1.65003e+00
+1.63931e+00
+1.62791e+00
+1.61520e+00
+1.60260e+00
+1.59161e+00
+1.57570e+00
+1.56125e+00
+1.55416e+00
+1.54045e+00
+1.52423e+00
+1.51209e+00
+1.50137e+00
+1.48740e+00
+1.47547e+00
+1.46376e+00
+1.40393e+00
+1.39254e+00
+1.38346e+00
+1.36946e+00
+1.36368e+00
+1.35216e+00
+1.34398e+00
+1.32984e+00
+1.31785e+00
+1.31044e+00
+1.29924e+00
+1.28663e+00
+1.28024e+00
+1.27249e+00
+1.26379e+00
+1.25887e+00
+1.25359e+00
+1.25020e+00
+1.24832e+00
+1.25085e+00
+1.25317e+00
+1.26061e+00
+1.27441e+00
+1.29059e+00
+1.30792e+00
+1.33145e+00
+1.35900e+00
+1.39154e+00
+1.42385e+00
+1.45788e+00
+1.49243e+00
+1.52324e+00
+1.55361e+00
+1.57962e+00
+1.60130e+00
+1.61876e+00
+1.62970e+00
+1.63441e+00
+1.64028e+00
+1.63713e+00
+1.63652e+00
+1.63067e+00
+1.62679e+00
+1.62161e+00
+1.61231e+00
+1.60240e+00
+1.59673e+00
+1.58529e+00
+1.57580e+00
+1.56684e+00
+1.55751e+00
+1.54695e+00
+1.53627e+00
+1.52317e+00
+1.51278e+00
+1.50296e+00
+1.49149e+00
+1.48176e+00
+1.47173e+00
+1.46019e+00
+1.44969e+00
+1.43695e+00
+1.42735e+00
+1.41596e+00
+1.36077e+00
+1.35007e+00
+1.33795e+00
+1.32908e+00
+1.32187e+00
+1.30743e+00
+1.29860e+00
+1.28602e+00
+1.27431e+00
+1.26411e+00
+1.25237e+00
+1.24211e+00
+1.23332e+00
+1.22242e+00
+1.21126e+00
+1.20516e+00
+1.19529e+00
+1.18773e+00
+1.18514e+00
+1.18256e+00
+1.18255e+00
+1.18541e+00
+1.19496e+00
+1.20410e+00
+1.22307e+00
+1.24331e+00
+1.26863e+00
+1.29767e+00
+1.32875e+00
+1.36648e+00
+1.40044e+00
+1.43490e+00
+1.46471e+00
+1.49106e+00
+1.51217e+00
+1.52839e+00
+1.54087e+00
+1.54483e+00
+1.54961e+00
+1.54697e+00
+1.54762e+00
+1.54466e+00
+1.53756e+00
+1.53281e+00
+1.53047e+00
+1.52082e+00
+1.51025e+00
+1.50606e+00
+1.50003e+00
+1.49170e+00
+1.48274e+00
+1.47477e+00
+1.46702e+00
+1.45784e+00
+1.45012e+00
+1.44132e+00
+1.43387e+00
+1.42286e+00
+1.41613e+00
+1.40837e+00
+1.39881e+00
+1.38805e+00
+1.37928e+00
+1.36830e+00
+1.31771e+00
+1.30749e+00
+1.29673e+00
+1.28804e+00
+1.28055e+00
+1.26783e+00
+1.25738e+00
+1.24544e+00
+1.23553e+00
+1.22303e+00
+1.21190e+00
+1.20074e+00
+1.18584e+00
+1.17499e+00
+1.16023e+00
+1.14982e+00
+1.13840e+00
+1.12897e+00
+1.11990e+00
+1.11235e+00
+1.10804e+00
+1.10694e+00
+1.11067e+00
+1.11472e+00
+1.12699e+00
+1.14410e+00
+1.16797e+00
+1.19335e+00
+1.22396e+00
+1.25707e+00
+1.29569e+00
+1.32670e+00
+1.35813e+00
+1.38909e+00
+1.40839e+00
+1.42768e+00
+1.43938e+00
+1.44572e+00
+1.45384e+00
+1.45131e+00
+1.44973e+00
+1.45193e+00
+1.44390e+00
+1.44203e+00
+1.43628e+00
+1.43155e+00
+1.42739e+00
+1.42738e+00
+1.42126e+00
+1.41518e+00
+1.40948e+00
+1.40537e+00
+1.40096e+00
+1.39402e+00
+1.38762e+00
+1.38212e+00
+1.37309e+00
+1.36972e+00
+1.36156e+00
+1.35343e+00
+1.34667e+00
+1.34124e+00
+1.33335e+00
+1.32478e+00
+1.27380e+00
+1.26572e+00
+1.26066e+00
+1.25218e+00
+1.23949e+00
+1.23027e+00
+1.22056e+00
+1.20620e+00
+1.19562e+00
+1.18336e+00
+1.16942e+00
+1.15675e+00
+1.14140e+00
+1.12925e+00
+1.11273e+00
+1.09768e+00
+1.08348e+00
+1.06781e+00
+1.05731e+00
+1.04295e+00
+1.03324e+00
+1.02443e+00
+1.02070e+00
+1.01920e+00
+1.02378e+00
+1.03177e+00
+1.05133e+00
+1.07276e+00
+1.10338e+00
+1.13488e+00
+1.16833e+00
+1.20207e+00
+1.23795e+00
+1.26839e+00
+1.29284e+00
+1.31279e+00
+1.32534e+00
+1.33680e+00
+1.33881e+00
+1.34208e+00
+1.34482e+00
+1.34425e+00
+1.34460e+00
+1.34460e+00
+1.34242e+00
+1.34237e+00
+1.34156e+00
+1.34105e+00
+1.33991e+00
+1.33984e+00
+1.33629e+00
+1.33764e+00
+1.33230e+00
+1.33062e+00
+1.32709e+00
+1.32450e+00
+1.31956e+00
+1.31753e+00
+1.31387e+00
+1.30828e+00
+1.30196e+00
+1.29696e+00
+1.28734e+00
+1.28415e+00
+1.23698e+00
+1.22888e+00
+1.22292e+00
+1.21221e+00
+1.20555e+00
+1.19254e+00
+1.18329e+00
+1.17271e+00
+1.16242e+00
+1.14650e+00
+1.13058e+00
+1.11891e+00
+1.10053e+00
+1.08441e+00
+1.06646e+00
+1.04808e+00
+1.02789e+00
+1.01098e+00
+9.89548e-01
+9.73938e-01
+9.58028e-01
+9.40978e-01
+9.29273e-01
+9.22105e-01
+9.15606e-01
+9.16694e-01
+9.25675e-01
+9.42294e-01
+9.61730e-01
+9.90133e-01
+1.02483e+00
+1.05895e+00
+1.09411e+00
+1.12509e+00
+1.15602e+00
+1.18007e+00
+1.19772e+00
+1.21001e+00
+1.21704e+00
+1.22741e+00
+1.22842e+00
+1.23671e+00
+1.24033e+00
+1.24529e+00
+1.25033e+00
+1.25562e+00
+1.25496e+00
+1.26030e+00
+1.26225e+00
+1.26518e+00
+1.26759e+00
+1.26942e+00
+1.27165e+00
+1.27112e+00
+1.27040e+00
+1.26902e+00
+1.27020e+00
+1.26722e+00
+1.26494e+00
+1.26064e+00
+1.25706e+00
+1.25020e+00
+1.24825e+00
+1.24459e+00
+1.20156e+00
+1.19653e+00
+1.18931e+00
+1.17981e+00
+1.17217e+00
+1.16398e+00
+1.15177e+00
+1.13973e+00
+1.12605e+00
+1.11237e+00
+1.09726e+00
+1.08063e+00
+1.06134e+00
+1.04367e+00
+1.02225e+00
+1.00120e+00
+9.78809e-01
+9.55709e-01
+9.28923e-01
+9.05457e-01
+8.79778e-01
+8.58556e-01
+8.36803e-01
+8.16026e-01
+8.02124e-01
+7.92206e-01
+7.88915e-01
+7.94510e-01
+8.05696e-01
+8.24332e-01
+8.46898e-01
+8.78158e-01
+9.15434e-01
+9.54797e-01
+9.92250e-01
+1.02467e+00
+1.05076e+00
+1.07163e+00
+1.08389e+00
+1.10082e+00
+1.11288e+00
+1.12272e+00
+1.13588e+00
+1.14539e+00
+1.15665e+00
+1.16499e+00
+1.17132e+00
+1.18200e+00
+1.18842e+00
+1.19130e+00
+1.20152e+00
+1.20399e+00
+1.20958e+00
+1.21250e+00
+1.21595e+00
+1.21878e+00
+1.22265e+00
+1.22096e+00
+1.22162e+00
+1.22250e+00
+1.21958e+00
+1.21494e+00
+1.21066e+00
+1.20742e+00
+1.17073e+00
+1.16500e+00
+1.16133e+00
+1.15340e+00
+1.14502e+00
+1.13466e+00
+1.12471e+00
+1.10983e+00
+1.09885e+00
+1.08225e+00
+1.06776e+00
+1.05188e+00
+1.02870e+00
+1.00654e+00
+9.85116e-01
+9.59496e-01
+9.30296e-01
+9.05565e-01
+8.70588e-01
+8.44011e-01
+8.07803e-01
+7.78088e-01
+7.45268e-01
+7.15438e-01
+6.88953e-01
+6.65320e-01
+6.45570e-01
+6.31078e-01
+6.29958e-01
+6.28350e-01
+6.36039e-01
+6.55256e-01
+6.88116e-01
+7.42814e-01
+7.98221e-01
+8.47147e-01
+8.88309e-01
+9.18588e-01
+9.41808e-01
+9.68892e-01
+9.87199e-01
+1.00930e+00
+1.02675e+00
+1.04611e+00
+1.06374e+00
+1.07826e+00
+1.09354e+00
+1.10653e+00
+1.12122e+00
+1.12989e+00
+1.14426e+00
+1.15234e+00
+1.15656e+00
+1.16400e+00
+1.16985e+00
+1.17650e+00
+1.17644e+00
+1.18276e+00
+1.18384e+00
+1.18661e+00
+1.18479e+00
+1.18102e+00
+1.17777e+00
+1.17614e+00
+1.14634e+00
+1.14238e+00
+1.13482e+00
+1.12911e+00
+1.11799e+00
+1.11076e+00
+1.10093e+00
+1.08743e+00
+1.07083e+00
+1.05741e+00
+1.03917e+00
+1.02003e+00
+1.00059e+00
+9.74585e-01
+9.50301e-01
+9.19598e-01
+8.89245e-01
+8.58312e-01
+8.19225e-01
+7.84103e-01
+7.42913e-01
+7.01276e-01
+6.58278e-01
+6.15681e-01
+5.72716e-01
+5.34994e-01
+4.96928e-01
+4.63552e-01
+4.35381e-01
+4.04842e-01
+3.94928e-01
+3.73029e-01
+3.92029e-01
+4.78853e-01
+5.64806e-01
+6.45651e-01
+7.05311e-01
+7.52671e-01
+7.95631e-01
+8.30200e-01
+8.67044e-01
+8.97451e-01
+9.28087e-01
+9.52274e-01
+9.78790e-01
+1.00022e+00
+1.02154e+00
+1.04071e+00
+1.05764e+00
+1.07371e+00
+1.08723e+00
+1.09942e+00
+1.11184e+00
+1.12012e+00
+1.13012e+00
+1.13770e+00
+1.14512e+00
+1.14654e+00
+1.15017e+00
+1.15115e+00
+1.15592e+00
+1.15283e+00
+1.15237e+00
+1.14953e+00
+1.12616e+00
+1.12294e+00
+1.11836e+00
+1.10926e+00
+1.10117e+00
+1.08996e+00
+1.08023e+00
+1.06714e+00
+1.05359e+00
+1.03691e+00
+1.01804e+00
+9.99211e-01
+9.74182e-01
+9.48105e-01
+9.18540e-01
+8.87495e-01
+8.55936e-01
+8.17751e-01
+7.76541e-01
+7.33684e-01
+6.86830e-01
+6.34252e-01
+5.81103e-01
+5.27332e-01
+4.68291e-01
+4.12065e-01
+3.60414e-01
+3.03706e-01
+2.52750e-01
+1.80242e-01
+1.91773e-01
+2.19804e-01
+2.38773e-01
+2.95406e-01
+3.41247e-01
+4.13781e-01
+5.18912e-01
+5.88082e-01
+6.47841e-01
+7.02478e-01
+7.51348e-01
+7.95096e-01
+8.35816e-01
+8.74608e-01
+9.03829e-01
+9.34633e-01
+9.62410e-01
+9.84206e-01
+1.00517e+00
+1.02557e+00
+1.04213e+00
+1.05876e+00
+1.07324e+00
+1.08713e+00
+1.09716e+00
+1.10549e+00
+1.11008e+00
+1.11930e+00
+1.12211e+00
+1.12609e+00
+1.12821e+00
+1.12850e+00
+1.13004e+00
+1.12655e+00
+1.11032e+00
+1.10451e+00
+1.10084e+00
+1.09208e+00
+1.08574e+00
+1.07903e+00
+1.06740e+00
+1.05495e+00
+1.03696e+00
+1.01986e+00
+1.00230e+00
+9.79169e-01
+9.54708e-01
+9.28515e-01
+8.97685e-01
+8.62885e-01
+8.28046e-01
+7.89210e-01
+7.42242e-01
+6.91667e-01
+6.40647e-01
+5.78514e-01
+5.17316e-01
+4.51785e-01
+3.81693e-01
+3.13320e-01
+2.45859e-01
+1.71415e-01
+1.05331e-01
+8.80070e-02
0
0
0
0
+2.34377e-01
+2.66331e-01
+3.10528e-01
+4.31064e-01
+5.07982e-01
+5.84195e-01
+6.52214e-01
+7.06141e-01
+7.61587e-01
+8.05723e-01
+8.46494e-01
+8.79574e-01
+9.10942e-01
+9.42106e-01
+9.68257e-01
+9.87687e-01
+1.01139e+00
+1.02625e+00
+1.04477e+00
+1.05626e+00
+1.06777e+00
+1.07691e+00
+1.09105e+00
+1.09530e+00
+1.09950e+00
+1.10846e+00
+1.10965e+00
+1.11153e+00
+1.11098e+00
+1.11112e+00
+1.09868e+00
+1.09353e+00
+1.09116e+00
+1.08493e+00
+1.07905e+00
+1.06865e+00
+1.05621e+00
+1.04315e+00
+1.02787e+00
+1.01165e+00
+9.89673e-01
+9.67394e-01
+9.44127e-01
+9.15848e-01
+8.82977e-01
+8.47502e-01
+8.08097e-01
+7.64021e-01
+7.17371e-01
+6.62978e-01
+6.08929e-01
+5.42827e-01
+4.71156e-01
+3.96490e-01
+3.20332e-01
+2.37354e-01
+1.55047e-01
+8.69995e-02
+3.28351e-02
0
0
0
0
0
0
+9.02674e-02
+1.79521e-01
+2.86119e-01
+3.98534e-01
+5.00509e-01
+5.78287e-01
+6.47752e-01
+7.03257e-01
+7.59802e-01
+7.99793e-01
+8.43867e-01
+8.77462e-01
+9.08194e-01
+9.38301e-01
+9.63576e-01
+9.86706e-01
+1.00482e+00
+1.02213e+00
+1.03726e+00
+1.05055e+00
+1.06144e+00
+1.07254e+00
+1.07727e+00
+1.08844e+00
+1.09413e+00
+1.10085e+00
+1.10077e+00
+1.10209e+00
+1.09908e+00
+1.09457e+00
+1.08901e+00
+1.08661e+00
+1.07993e+00
+1.07237e+00
+1.06113e+00
+1.04955e+00
+1.03632e+00
+1.01980e+00
+1.00342e+00
+9.85411e-01
+9.63957e-01
+9.37017e-01
+9.04574e-01
+8.76926e-01
+8.38733e-01
+8.00896e-01
+7.52642e-01
+7.05016e-01
+6.51687e-01
+5.90695e-01
+5.21996e-01
+4.51018e-01
+3.69692e-01
+2.85141e-01
+1.99320e-01
+1.12841e-01
+4.94193e-02
+5.14281e-03
0
0
0
0
0
0
0
+8.11347e-02
+2.07750e-01
+3.49500e-01
+4.50684e-01
+5.38764e-01
+6.16001e-01
+6.77196e-01
+7.33770e-01
+7.80567e-01
+8.20590e-01
+8.61696e-01
+8.92363e-01
+9.24227e-01
+9.48531e-01
+9.69299e-01
+9.91418e-01
+1.01138e+00
+1.02761e+00
+1.04477e+00
+1.05552e+00
+1.06398e+00
+1.07381e+00
+1.08301e+00
+1.08816e+00
+1.08953e+00
+1.09625e+00
+1.09296e+00
+1.09321e+00
+1.09140e+00
+1.08827e+00
+1.08445e+00
+1.08109e+00
+1.07169e+00
+1.06333e+00
+1.05184e+00
+1.03668e+00
+1.02386e+00
+1.00739e+00
+9.84223e-01
+9.62729e-01
+9.34459e-01
+9.09052e-01
+8.73616e-01
+8.40445e-01
+7.98167e-01
+7.54010e-01
+7.03417e-01
+6.51011e-01
+5.89427e-01
+5.22388e-01
+4.51437e-01
+3.71339e-01
+2.87129e-01
+1.99754e-01
+1.15451e-01
+5.08073e-02
+6.01249e-03
0
0
0
0
0
0
0
+8.13633e-02
+2.08960e-01
+3.51818e-01
+4.51748e-01
+5.40093e-01
+6.13754e-01
+6.76476e-01
+7.32940e-01
+7.80553e-01
+8.21419e-01
+8.57332e-01
+8.92927e-01
+9.20998e-01
+9.51714e-01
+9.74704e-01
+9.92136e-01
+1.01268e+00
+1.02714e+00
+1.04124e+00
+1.05446e+00
+1.06396e+00
+1.07174e+00
+1.07975e+00
+1.08724e+00
+1.08790e+00
+1.09337e+00
+1.09612e+00
+1.09330e+00
+1.09900e+00
+1.09536e+00
+1.09211e+00
+1.08697e+00
+1.07490e+00
+1.06720e+00
+1.05802e+00
+1.03965e+00
+1.02703e+00
+1.01176e+00
+9.89450e-01
+9.67436e-01
+9.43263e-01
+9.13947e-01
+8.82751e-01
+8.47677e-01
+8.08471e-01
+7.63725e-01
+7.17556e-01
+6.63258e-01
+6.05633e-01
+5.41308e-01
+4.76529e-01
+3.99073e-01
+3.20062e-01
+2.38570e-01
+1.58588e-01
+9.02139e-02
+3.86879e-02
0
0
0
0
0
0
+1.79151e-01
+1.86854e-01
+2.88416e-01
+3.98775e-01
+5.00951e-01
+5.76041e-01
+6.46957e-01
+7.02960e-01
+7.56806e-01
+8.00300e-01
+8.41159e-01
+8.75065e-01
+9.09494e-01
+9.36576e-01
+9.65547e-01
+9.85669e-01
+1.00447e+00
+1.02008e+00
+1.03536e+00
+1.05119e+00
+1.06390e+00
+1.07422e+00
+1.08368e+00
+1.08844e+00
+1.09493e+00
+1.09498e+00
+1.09755e+00
+1.10285e+00
+1.10029e+00
+1.10931e+00
+1.10424e+00
+1.10099e+00
+1.09329e+00
+1.08578e+00
+1.07759e+00
+1.06597e+00
+1.05252e+00
+1.03820e+00
+1.02116e+00
+1.00393e+00
+9.78074e-01
+9.54599e-01
+9.27567e-01
+8.98871e-01
+8.64453e-01
+8.29612e-01
+7.85686e-01
+7.44338e-01
+6.91870e-01
+6.38894e-01
+5.82037e-01
+5.18112e-01
+4.52919e-01
+3.83936e-01
+3.13531e-01
+2.45031e-01
+1.70657e-01
+1.00359e-01
+9.30335e-02
0
0
0
0
+1.91811e-01
+2.67320e-01
+3.12453e-01
+4.29810e-01
+5.06895e-01
+5.83958e-01
+6.51926e-01
+7.10146e-01
+7.59297e-01
+8.04452e-01
+8.43389e-01
+8.77191e-01
+9.10792e-01
+9.38392e-01
+9.64280e-01
+9.88901e-01
+1.00708e+00
+1.02784e+00
+1.04096e+00
+1.05603e+00
+1.06809e+00
+1.07946e+00
+1.08976e+00
+1.09299e+00
+1.10022e+00
+1.10644e+00
+1.10804e+00
+1.11129e+00
+1.11147e+00
+1.11015e+00
+1.12512e+00
+1.12160e+00
+1.11380e+00
+1.11124e+00
+1.10017e+00
+1.08981e+00
+1.07902e+00
+1.06891e+00
+1.05247e+00
+1.03796e+00
+1.01569e+00
+9.97780e-01
+9.74209e-01
+9.48074e-01
+9.19851e-01
+8.89260e-01
+8.53816e-01
+8.18350e-01
+7.76820e-01
+7.32436e-01
+6.85535e-01
+6.35957e-01
+5.79803e-01
+5.26386e-01
+4.70054e-01
+4.14255e-01
+3.58838e-01
+3.05569e-01
+2.50473e-01
+1.84697e-01
+1.92182e-01
+2.04380e-01
+2.28664e-01
+2.93781e-01
+3.53033e-01
+4.08210e-01
+5.14551e-01
+5.80506e-01
+6.43261e-01
+7.00495e-01
+7.48518e-01
+7.94247e-01
+8.35842e-01
+8.72288e-01
+9.03929e-01
+9.31577e-01
+9.57546e-01
+9.84399e-01
+1.00675e+00
+1.02474e+00
+1.04189e+00
+1.06010e+00
+1.07107e+00
+1.08380e+00
+1.09606e+00
+1.10009e+00
+1.11048e+00
+1.11728e+00
+1.12285e+00
+1.12581e+00
+1.12904e+00
+1.12692e+00
+1.12863e+00
+1.12967e+00
+1.14847e+00
+1.13944e+00
+1.13351e+00
+1.12774e+00
+1.12029e+00
+1.11117e+00
+1.10171e+00
+1.08710e+00
+1.07163e+00
+1.05660e+00
+1.03843e+00
+1.02212e+00
+9.98871e-01
+9.75349e-01
+9.49473e-01
+9.22732e-01
+8.90520e-01